#------------------------------------------------------------------------------
#$Date: 2016-02-16 14:49:47 +0200 (Tue, 16 Feb 2016) $
#$Revision: 176465 $
#$URL: svn://www.crystallography.net/cod/cif/9/00/81/9008125.cif $
#------------------------------------------------------------------------------
#
# This file is available in the Crystallography Open Database (COD),
# http://www.crystallography.net/. The original data for this entry
# were provided the American Mineralogist Crystal Structure Database,
# http://rruff.geo.arizona.edu/AMS/amcsd.php
#
# The file may be used within the scientific community so long as
# proper attribution is given to the journal article from which the
# data were obtained.
#
data_9008125
loop_
_publ_author_name
'Beyer, H.'
_publ_section_title
;
 Verfeinerung der kristallstruktur von tellurit, dem rhomischen TeO2
 Locality: Moctezuma, Mexico
;
_journal_name_full               'Zeitschrift fur Kristallographie'
_journal_page_first              228
_journal_page_last               237
_journal_volume                  124
_journal_year                    1967
_chemical_formula_sum            'O2 Te'
_chemical_name_mineral           Tellurite
_space_group_IT_number           61
_symmetry_space_group_name_Hall  '-P 2ac 2ab'
_symmetry_space_group_name_H-M   'P b c a'
_cell_angle_alpha                90
_cell_angle_beta                 90
_cell_angle_gamma                90
_cell_length_a                   12.035
_cell_length_b                   5.464
_cell_length_c                   5.607
_cell_volume                     368.712
_exptl_crystal_density_diffrn    5.750
_cod_original_formula_sum        'Te O2'
_cod_database_code               9008125
loop_
_symmetry_equiv_pos_as_xyz
x,y,z
x,1/2-y,1/2+z
-x,1/2+y,1/2-z
1/2-x,1/2+y,z
1/2+x,1/2-y,-z
1/2+x,y,1/2-z
1/2-x,-y,1/2+z
-x,-y,-z
loop_
_atom_site_label
_atom_site_fract_x
_atom_site_fract_y
_atom_site_fract_z
_atom_site_U_iso_or_equiv
Te 0.11820 0.02550 0.37810 0.01349
O1 0.02700 0.63700 0.17800 0.00887
O2 0.17400 0.22200 0.08600 0.00887
